<?xml version="1.0" encoding="UTF-8"?>

<!-- generated on 2022-03-09 21:04:07 by Eclipse SUMO GUI Version 1.12.0
<configuration xmlns:xsi="http://www.w3.org/2001/XMLSchema-instance" xsi:noNamespaceSchemaLocation="http://sumo.dlr.de/xsd/sumoConfiguration.xsd">

    <input>
        <net-file value="circle_network.net.xml"/>
        <route-files value="odtrips_valid.xml"/>
    </input>

    <output>
        <tripinfo-output value="tripinfo.xml"/>
    </output>

    <traci_server>
        <remote-port value="51188"/>
    </traci_server>

</configuration>
-->

<tripinfos xmlns:xsi="http://www.w3.org/2001/XMLSchema-instance" xsi:noNamespaceSchemaLocation="http://sumo.dlr.de/xsd/tripinfo_file.xsd">
    <tripinfo id="11" depart="19.00" departLane="-E34_0" departPos="5.10" departSpeed="14.31" departDelay="0.96" arrival="34.00" arrivalLane="-E17_0" arrivalPos="10.13" arrivalSpeed="13.50" duration="15.00" routeLength="200.00" waitingTime="0.00" waitingCount="0" stopTime="0.00" timeLoss="0.72" rerouteNo="1" devices="tripinfo_11 routing_11" vType="DEFAULT_VEHTYPE" speedFactor="1.03" vaporized=""/>
    <tripinfo id="39" depart="5.00" departLane="E16_0" departPos="5.10" departSpeed="13.22" departDelay="0.93" arrival="37.00" arrivalLane="E32_0" arrivalPos="17.69" arrivalSpeed="14.43" duration="32.00" routeLength="216.64" waitingTime="11.00" waitingCount="1" stopTime="0.00" timeLoss="16.48" rerouteNo="1" devices="tripinfo_39 routing_39" vType="DEFAULT_VEHTYPE" speedFactor="1.06" vaporized=""/>
    <tripinfo id="27" depart="19.00" departLane="-E16_0" departPos="5.10" departSpeed="11.54" departDelay="0.87" arrival="99.00" arrivalLane="E35_0" arrivalPos="31.20" arrivalSpeed="11.21" duration="80.00" routeLength="259.66" waitingTime="46.00" waitingCount="2" stopTime="0.00" timeLoss="55.31" rerouteNo="1" devices="tripinfo_27 routing_27" vType="DEFAULT_VEHTYPE" speedFactor="0.83" vaporized=""/>
    <tripinfo id="42" depart="8.00" departLane="-E21_0" departPos="5.10" departSpeed="10.35" departDelay="0.62" arrival="106.00" arrivalLane="E36_0" arrivalPos="36.75" arrivalSpeed="13.30" duration="98.00" routeLength="257.23" waitingTime="66.00" waitingCount="2" stopTime="0.00" timeLoss="78.19" rerouteNo="1" devices="tripinfo_42 routing_42" vType="DEFAULT_VEHTYPE" speedFactor="1.01" vaporized=""/>
    <tripinfo id="45" depart="38.00" departLane="-E21_0" departPos="5.10" departSpeed="6.77" departDelay="0.84" arrival="108.00" arrivalLane="E36_0" arrivalPos="36.75" arrivalSpeed="14.04" duration="70.00" routeLength="257.23" waitingTime="36.00" waitingCount="2" stopTime="0.00" timeLoss="50.52" rerouteNo="1" devices="tripinfo_45 routing_45" vType="DEFAULT_VEHTYPE" speedFactor="1.05" vaporized=""/>
    <tripinfo id="33" depart="82.00" departLane="-E16_0" departPos="5.10" departSpeed="11.90" departDelay="0.30" arrival="110.00" arrivalLane="E35_0" arrivalPos="31.20" arrivalSpeed="11.89" duration="28.00" routeLength="259.66" waitingTime="0.00" waitingCount="0" stopTime="0.00" timeLoss="4.44" rerouteNo="1" devices="tripinfo_33 routing_33" vType="DEFAULT_VEHTYPE" speedFactor="0.86" vaporized=""/>
    <tripinfo id="46" depart="102.00" departLane="E17_0" departPos="5.10" departSpeed="14.26" departDelay="0.86" arrival="121.00" arrivalLane="E35_0" arrivalPos="31.20" arrivalSpeed="13.27" duration="19.00" routeLength="245.91" waitingTime="0.00" waitingCount="0" stopTime="0.00" timeLoss="1.02" rerouteNo="1" devices="tripinfo_46 routing_46" vType="DEFAULT_VEHTYPE" speedFactor="1.03" vaporized=""/>
    <tripinfo id="2" depart="10.00" departLane="-E32_0" departPos="5.10" departSpeed="15.04" departDelay="0.26" arrival="127.00" arrivalLane="E16_0" arrivalPos="31.25" arrivalSpeed="14.79" duration="117.00" routeLength="248.70" waitingTime="78.00" waitingCount="3" stopTime="0.00" timeLoss="97.76" rerouteNo="1" devices="tripinfo_2 routing_2" vType="DEFAULT_VEHTYPE" speedFactor="1.08" vaporized=""/>
    <tripinfo id="26" depart="8.00" departLane="E18_0" departPos="5.10" departSpeed="13.03" departDelay="0.80" arrival="140.00" arrivalLane="-E32_0" arrivalPos="17.69" arrivalSpeed="10.78" duration="132.00" routeLength="257.92" waitingTime="93.00" waitingCount="3" stopTime="0.00" timeLoss="110.30" rerouteNo="1" devices="tripinfo_26 routing_26" vType="DEFAULT_VEHTYPE" speedFactor="0.94" vaporized=""/>
    <tripinfo id="5" depart="56.00" departLane="-E32_0" departPos="5.10" departSpeed="12.31" departDelay="0.35" arrival="160.00" arrivalLane="-E21_0" arrivalPos="22.65" arrivalSpeed="4.56" duration="104.00" routeLength="204.16" waitingTime="69.00" waitingCount="2" stopTime="0.00" timeLoss="85.41" rerouteNo="1" devices="tripinfo_5 routing_5" vType="DEFAULT_VEHTYPE" speedFactor="0.89" vaporized=""/>
    <tripinfo id="20" depart="105.00" departLane="-E16_0" departPos="5.10" departSpeed="13.22" departDelay="0.50" arrival="185.00" arrivalLane="E32_0" arrivalPos="17.69" arrivalSpeed="11.03" duration="80.00" routeLength="260.93" waitingTime="45.00" waitingCount="2" stopTime="0.00" timeLoss="60.10" rerouteNo="1" devices="tripinfo_20 routing_20" vType="DEFAULT_VEHTYPE" speedFactor="1.05" vaporized=""/>
    <tripinfo id="0" depart="129.00" departLane="-E32_0" departPos="5.10" departSpeed="12.20" departDelay="0.21" arrival="191.00" arrivalLane="-E21_0" arrivalPos="22.65" arrivalSpeed="10.62" duration="62.00" routeLength="204.16" waitingTime="32.00" waitingCount="1" stopTime="0.00" timeLoss="43.20" rerouteNo="1" devices="tripinfo_0 routing_0" vType="DEFAULT_VEHTYPE" speedFactor="0.88" vaporized=""/>
    <tripinfo id="29" depart="118.00" departLane="E18_0" departPos="5.10" departSpeed="4.98" departDelay="0.22" arrival="193.00" arrivalLane="E32_0" arrivalPos="17.69" arrivalSpeed="13.27" duration="75.00" routeLength="193.32" waitingTime="48.00" waitingCount="2" stopTime="0.00" timeLoss="60.24" rerouteNo="1" devices="tripinfo_29 routing_29" vType="DEFAULT_VEHTYPE" speedFactor="0.99" vaporized=""/>
    <tripinfo id="15" depart="175.00" departLane="-E35_0" departPos="5.10" departSpeed="11.47" departDelay="0.69" arrival="200.00" arrivalLane="-E21_0" arrivalPos="22.65" arrivalSpeed="10.77" duration="25.00" routeLength="221.61" waitingTime="0.00" waitingCount="0" stopTime="0.00" timeLoss="5.26" rerouteNo="1" devices="tripinfo_15 routing_15" vType="DEFAULT_VEHTYPE" speedFactor="0.83" vaporized=""/>
    <tripinfo id="32" depart="76.00" departLane="E16_0" departPos="5.10" departSpeed="13.03" departDelay="0.31" arrival="228.00" arrivalLane="-E33_0" arrivalPos="18.99" arrivalSpeed="5.21" duration="152.00" routeLength="251.97" waitingTime="112.00" waitingCount="4" stopTime="0.00" timeLoss="130.75" rerouteNo="1" devices="tripinfo_32 routing_32" vType="DEFAULT_VEHTYPE" speedFactor="0.94" vaporized=""/>
    <tripinfo id="17" depart="164.00" departLane="-E33_0" departPos="5.10" departSpeed="13.54" departDelay="0.98" arrival="230.00" arrivalLane="-E16_0" arrivalPos="31.25" arrivalSpeed="12.98" duration="66.00" routeLength="239.54" waitingTime="33.00" waitingCount="2" stopTime="0.00" timeLoss="46.36" rerouteNo="1" devices="tripinfo_17 routing_17" vType="DEFAULT_VEHTYPE" speedFactor="0.98" vaporized=""/>
</tripinfos>
